 Q-Chem 4.4, Q-Chem, Inc., Pleasanton, CA (2016)
 Q-Chem 4.4.2 for Intel X86 Linux

User input:
--------------------------------------------------------------
$comment0
optfreq

$comment
PF6{1-}     optimization/frequencies with dfmp2/avqz structure

$molecule
-1  1
P         -0.0000000032       -0.0000000035       -0.0000000053
F          1.6194366418        0.0000000021        0.0000000033
F         -1.6194366476        0.0000000025        0.0000000052
F          0.0000000009        1.6194366460        0.0000000083
F          0.0000000014       -1.6194366496        0.0000000014
F          0.0000000023        0.0000000048        1.6194366415
F          0.0000000042       -0.0000000022       -1.6194366545
$end

$rem
jobtype         opt
method          wB97M-V
basis           gen
purecart        1111
xc_grid         000099000590
nl_grid         1
unrestricted    false
incdft          0
incfock         0
max_scf_cycles  100
scf_guess       sad
scf_algorithm   diis
scf_convergence 8
thresh          14
symmetry        false
sym_ignore      true
mem_total       10000
mem_static      4000
$end

$basis
F     0
S   9   1.00
0.215660E+06           0.253780E-04
0.735040E+04           0.103600E-02
0.322990E+05           0.196930E-03
0.208180E+04           0.432940E-02
0.679090E+03           0.154620E-01
0.245100E+03           0.469030E-01
0.954620E+02           0.118810E+00
0.394220E+02           0.217110E+00
0.170180E+02           0.236990E+00
S   8   1.00
0.322990E+05           0.101920E-05
0.208180E+04           0.680960E-04
0.679090E+03           0.346200E-03
0.245100E+03           0.413970E-02
0.954620E+02           0.230730E-01
0.394220E+02           0.133950E+00
0.170180E+02           0.422460E+00
0.745250E+01           0.859990E+00
S   1   1.00
0.313290E+01           1.0000000
S   1   1.00
0.133950E+01           1.0000000
S   1   1.00
0.542180E+00           1.0000000
S   1   1.00
0.209040E+00           1.0000000
S   1   1.00
0.749240E-01           1.0000000
P   5   1.00
0.351220E+03           0.552630E-03
0.829780E+02           0.462850E-02
0.262670E+02           0.238020E-01
0.993070E+01           0.762620E-01
0.406700E+01           0.189640E+00
P   1   1.00
0.172460E+01           1.0000000
P   1   1.00
0.719760E+00           1.0000000
P   1   1.00
0.286240E+00           1.0000000
P   1   1.00
0.107890E+00           1.0000000
P   1   1.00
0.378560E-01           1.0000000
D   1   1.00
0.840000E+01           1.0000000
D   1   1.00
0.260000E+01           1.0000000
D   1   1.00
0.100000E+01           1.0000000
D   1   1.00
0.350000E+00           1.0000000
D   1   1.00
0.113570E+00           1.0000000
F   1   1.00
0.260000E+01           1.0000000
F   1   1.00
0.105000E+01           1.0000000
F   1   1.00
0.151420E+00           1.0000000
G   1   1.00
0.170000E+01           1.0000000
G   1   1.00
0.189280E+00           1.0000000
****
P     0
S   12   1.00
0.106370E+07           0.125090E-04
0.160000E+06           0.966710E-04
0.365130E+05           0.506820E-03
0.103590E+05           0.213100E-02
0.338280E+04           0.769250E-02
0.122230E+04           0.244210E-01
0.477300E+03           0.681220E-01
0.198090E+03           0.160690E+00
0.859940E+02           0.298670E+00
0.386270E+02           0.358780E+00
0.176880E+02           0.206160E+00
0.725510E+01           0.273860E-01
S   10   1.00
0.103590E+05          -0.345020E-05
0.338280E+04          -0.534270E-05
0.122230E+04          -0.138140E-03
0.477300E+03          -0.608820E-03
0.198090E+03          -0.450640E-02
0.859940E+02          -0.170710E-01
0.386270E+02          -0.539540E-01
0.176880E+02          -0.514940E-01
0.725510E+01           0.137580E+00
0.326990E+01           0.275250E+00
S   10   1.00
0.338280E+04          -0.175570E-05
0.122230E+04          -0.158010E-04
0.477300E+03          -0.113530E-03
0.198090E+03          -0.673290E-03
0.859940E+02          -0.303140E-02
0.386270E+02          -0.922920E-02
0.176880E+02          -0.119360E-01
0.725510E+01           0.357250E-01
0.326990E+01           0.158750E+00
0.143130E+01           0.212360E+00
S   1   1.00
0.470470E+00           1.0000000
S   1   1.00
0.212890E+00           1.0000000
S   1   1.00
0.877420E-01           1.0000000
S   1   1.00
0.334080E-01           1.0000000
P   9   1.00
0.276220E+04           0.126180E-03
0.654780E+03           0.110480E-02
0.212580E+03           0.614830E-02
0.798950E+02           0.263070E-01
0.333660E+02           0.798660E-01
0.149860E+02           0.188400E+00
0.696800E+01           0.313620E+00
0.328180E+01           0.353260E+00
0.152470E+01           0.213660E+00
P   9   1.00
0.654780E+03           0.595920E-05
0.212580E+03          -0.680860E-05
0.798950E+02           0.745130E-04
0.333660E+02          -0.606640E-03
0.149860E+02          -0.126040E-02
0.696800E+01          -0.947190E-02
0.328180E+01          -0.440140E-02
0.152470E+01           0.124660E-01
0.669240E+00           0.213430E+00
P   1   1.00
0.299290E+00           1.0000000
P   1   1.00
0.128110E+00           1.0000000
P   1   1.00
0.509920E-01           1.0000000
P   1   1.00
0.188000E-01           1.0000000
D   1   1.00
0.771000E+01           1.0000000
D   1   1.00
0.203000E+01           1.0000000
D   1   1.00
0.600000E+00           1.0000000
D   1   1.00
0.220000E+00           1.0000000
D   1   1.00
0.563990E-01           1.0000000
F   1   1.00
0.134000E+01           1.0000000
F   1   1.00
0.450000E+00           1.0000000
F   1   1.00
0.751990E-01           1.0000000
G   1   1.00
0.720000E+00           1.0000000
G   1   1.00
0.939990E-01           1.0000000
****
$end

--------------------------------------------------------------

   53    -940.9082107056      8.10E-09 Convergence criterion met
 Total energy in the final basis set = -940.9082107056
    7    -940.9082146048      1.00E-09 Convergence criterion met
 Total energy in the final basis set = -940.9082146048
    7    -940.9082169310      1.58E-09 Convergence criterion met
 Total energy in the final basis set = -940.9082169310
 Final energy is   -940.908216930965
 **  OPTIMIZATION CONVERGED  **
 Total job time:  18056.95s(wall), 141146.76s(cpu)
        *  Thank you very much for using Q-Chem.  Have a nice day.  *
 Q-Chem 4.4, Q-Chem, Inc., Pleasanton, CA (2016)
 Q-Chem 4.4.2 for Intel X86 Linux

User input:
--------------------------------------------------------------

$molecule
read
$end

$rem
jobtype         freq
method          wB97M-V
basis           gen
purecart        1111
xc_grid         000099000590
nl_grid         1
unrestricted    false
incdft          0
incfock         0
max_scf_cycles  100
scf_guess       read
vibman_print    6
thresh          14
symmetry        false
sym_ignore      true
mem_total       10000
mem_static      4000
$end

$basis
F     0
S   9   1.00
0.215660E+06           0.253780E-04
0.735040E+04           0.103600E-02
0.322990E+05           0.196930E-03
0.208180E+04           0.432940E-02
0.679090E+03           0.154620E-01
0.245100E+03           0.469030E-01
0.954620E+02           0.118810E+00
0.394220E+02           0.217110E+00
0.170180E+02           0.236990E+00
S   8   1.00
0.322990E+05           0.101920E-05
0.208180E+04           0.680960E-04
0.679090E+03           0.346200E-03
0.245100E+03           0.413970E-02
0.954620E+02           0.230730E-01
0.394220E+02           0.133950E+00
0.170180E+02           0.422460E+00
0.745250E+01           0.859990E+00
S   1   1.00
0.313290E+01           1.0000000
S   1   1.00
0.133950E+01           1.0000000
S   1   1.00
0.542180E+00           1.0000000
S   1   1.00
0.209040E+00           1.0000000
S   1   1.00
0.749240E-01           1.0000000
P   5   1.00
0.351220E+03           0.552630E-03
0.829780E+02           0.462850E-02
0.262670E+02           0.238020E-01
0.993070E+01           0.762620E-01
0.406700E+01           0.189640E+00
P   1   1.00
0.172460E+01           1.0000000
P   1   1.00
0.719760E+00           1.0000000
P   1   1.00
0.286240E+00           1.0000000
P   1   1.00
0.107890E+00           1.0000000
P   1   1.00
0.378560E-01           1.0000000
D   1   1.00
0.840000E+01           1.0000000
D   1   1.00
0.260000E+01           1.0000000
D   1   1.00
0.100000E+01           1.0000000
D   1   1.00
0.350000E+00           1.0000000
D   1   1.00
0.113570E+00           1.0000000
F   1   1.00
0.260000E+01           1.0000000
F   1   1.00
0.105000E+01           1.0000000
F   1   1.00
0.151420E+00           1.0000000
G   1   1.00
0.170000E+01           1.0000000
G   1   1.00
0.189280E+00           1.0000000
****
P     0
S   12   1.00
0.106370E+07           0.125090E-04
0.160000E+06           0.966710E-04
0.365130E+05           0.506820E-03
0.103590E+05           0.213100E-02
0.338280E+04           0.769250E-02
0.122230E+04           0.244210E-01
0.477300E+03           0.681220E-01
0.198090E+03           0.160690E+00
0.859940E+02           0.298670E+00
0.386270E+02           0.358780E+00
0.176880E+02           0.206160E+00
0.725510E+01           0.273860E-01
S   10   1.00
0.103590E+05          -0.345020E-05
0.338280E+04          -0.534270E-05
0.122230E+04          -0.138140E-03
0.477300E+03          -0.608820E-03
0.198090E+03          -0.450640E-02
0.859940E+02          -0.170710E-01
0.386270E+02          -0.539540E-01
0.176880E+02          -0.514940E-01
0.725510E+01           0.137580E+00
0.326990E+01           0.275250E+00
S   10   1.00
0.338280E+04          -0.175570E-05
0.122230E+04          -0.158010E-04
0.477300E+03          -0.113530E-03
0.198090E+03          -0.673290E-03
0.859940E+02          -0.303140E-02
0.386270E+02          -0.922920E-02
0.176880E+02          -0.119360E-01
0.725510E+01           0.357250E-01
0.326990E+01           0.158750E+00
0.143130E+01           0.212360E+00
S   1   1.00
0.470470E+00           1.0000000
S   1   1.00
0.212890E+00           1.0000000
S   1   1.00
0.877420E-01           1.0000000
S   1   1.00
0.334080E-01           1.0000000
P   9   1.00
0.276220E+04           0.126180E-03
0.654780E+03           0.110480E-02
0.212580E+03           0.614830E-02
0.798950E+02           0.263070E-01
0.333660E+02           0.798660E-01
0.149860E+02           0.188400E+00
0.696800E+01           0.313620E+00
0.328180E+01           0.353260E+00
0.152470E+01           0.213660E+00
P   9   1.00
0.654780E+03           0.595920E-05
0.212580E+03          -0.680860E-05
0.798950E+02           0.745130E-04
0.333660E+02          -0.606640E-03
0.149860E+02          -0.126040E-02
0.696800E+01          -0.947190E-02
0.328180E+01          -0.440140E-02
0.152470E+01           0.124660E-01
0.669240E+00           0.213430E+00
P   1   1.00
0.299290E+00           1.0000000
P   1   1.00
0.128110E+00           1.0000000
P   1   1.00
0.509920E-01           1.0000000
P   1   1.00
0.188000E-01           1.0000000
D   1   1.00
0.771000E+01           1.0000000
D   1   1.00
0.203000E+01           1.0000000
D   1   1.00
0.600000E+00           1.0000000
D   1   1.00
0.220000E+00           1.0000000
D   1   1.00
0.563990E-01           1.0000000
F   1   1.00
0.134000E+01           1.0000000
F   1   1.00
0.450000E+00           1.0000000
F   1   1.00
0.751990E-01           1.0000000
G   1   1.00
0.720000E+00           1.0000000
G   1   1.00
0.939990E-01           1.0000000
****
$end
--------------------------------------------------------------

    2    -940.9082169310      1.24E-10 Convergence criterion met
 Total energy in the final basis set = -940.9082169310
    7    -940.9082158803      2.53E-09 Convergence criterion met
 Total energy in the final basis set = -940.9082158803
    7    -940.9082158803      5.06E-09 Convergence criterion met
 Total energy in the final basis set = -940.9082158803
    7    -940.9082158805      3.43E-09 Convergence criterion met
 Total energy in the final basis set = -940.9082158805
 Total energy in the final basis set = -940.9082164455
    8    -940.9082164361      2.87E-09 Convergence criterion met
 Total energy in the final basis set = -940.9082164361
    7    -940.9082167877      7.70E-09 Convergence criterion met
 Total energy in the final basis set = -940.9082167877
    6    -940.9082167877      7.26E-09 Convergence criterion met
 Total energy in the final basis set = -940.9082167877
    6    -940.9082167877      5.13E-09 Convergence criterion met
 Total energy in the final basis set = -940.9082167877
    6    -940.9082167877      7.26E-09 Convergence criterion met
 Total energy in the final basis set = -940.9082167877
    7    -940.9082164361      7.69E-09 Convergence criterion met
 Total energy in the final basis set = -940.9082164361
    8    -940.9082164455      2.87E-09 Convergence criterion met
 Total energy in the final basis set = -940.9082164455

                    Orbital Energies (a.u.)
 --------------------------------------------------------------

 Alpha MOs
 -- Occupied --
-77.376 -24.702 -24.702 -24.702 -24.702 -24.702 -24.702  -6.711
 -4.825  -4.825  -4.825  -1.218  -1.141  -1.141  -1.141  -1.108
 -1.108  -0.605  -0.489  -0.489  -0.489  -0.420  -0.420  -0.420
 -0.380  -0.380  -0.338  -0.338  -0.338  -0.337  -0.337  -0.337
 -0.297  -0.297  -0.297

          Ground-State Mulliken Net Atomic Charges

     Atom                 Charge (a.u.)
  ----------------------------------------
      1 P                     0.716526
      2 F                    -0.285709
      3 F                    -0.285709
      4 F                    -0.285709
      5 F                    -0.285709
      6 F                    -0.286107
      7 F                    -0.287583
  ----------------------------------------
  Sum of atomic charges =    -1.000000

                    Cartesian Multipole Moments
 -----------------------------------------------------------------
    Charge (ESU x 10^10)
                -4.8032
    Dipole Moment (Debye)
         X       0.0000      Y       0.0000      Z       0.0052
       Tot       0.0052
    Quadrupole Moments (Debye-Ang)
        XX     -50.7149     XY       0.0000     YY     -50.7149
        XZ       0.0000     YZ       0.0000     ZZ     -50.7290

             Standard Nuclear Orientation (Angstroms)
    I     Atom           X                Y                Z
 ----------------------------------------------------------------
    1      P       0.0000000000    -0.0000000730    -0.0000000156
    2      F       1.6206577326     0.0000000000     0.0000000070
    3      F      -1.6206577679     0.0000000000     0.0000000066
    4      F       0.0000000128     1.6206577903     0.0000000175
    5      F       0.0000000129    -1.6206577183     0.0000000105
    6      F       0.0000000102     0.0000000000     1.6206577392
    7      F       0.0000000098     0.0000000000    -1.6206577633
 ----------------------------------------------------------------

 Frequency:       300.38                 300.38                 300.38
 Force Cnst:      1.0100                 1.0100                 1.0100
 Red. Mass:      18.9984                18.9984                18.9984
 IR Intens:        0.000                  0.000                  0.000
 Frequency:       458.77                 458.78                 458.78
 Force Cnst:      2.3559                 2.3560                 2.3560
 Red. Mass:      18.9984                18.9984                18.9984
 IR Intens:        0.000                  0.000                  0.000
 Frequency:       547.97                 547.97                 547.99
 Force Cnst:      3.5807                 3.5807                 3.5809
 Red. Mass:      20.2394                20.2394                20.2395
 IR Intens:       27.413                 27.413                 27.420
 Frequency:       557.91                 557.92                 733.70
 Force Cnst:      3.4842                 3.4843                 6.0257
 Red. Mass:      18.9984                18.9984                18.9984
 IR Intens:        0.000                  0.000                  0.000
 Frequency:       850.83                 850.84                 850.85
 Force Cnst:     10.7000                10.7002                10.7005
 Red. Mass:      25.0870                25.0871                25.0872
 IR Intens:      451.409                451.428                451.442

 STANDARD THERMODYNAMIC QUANTITIES AT   298.15 K  AND     1.00 ATM

   This Molecule has  0 Imaginary Frequencies
   Zero point vibrational energy:       11.899 kcal/mol

   Atom    1 Element P  Has Mass   30.97376
   Atom    2 Element F  Has Mass   18.99840
   Atom    3 Element F  Has Mass   18.99840
   Atom    4 Element F  Has Mass   18.99840
   Atom    5 Element F  Has Mass   18.99840
   Atom    6 Element F  Has Mass   18.99840
   Atom    7 Element F  Has Mass   18.99840
   Molecular Mass:   144.964160 amu
   Principal axes and moments of inertia in amu*Bohr^2:
                             1           2           3
    Eigenvalues --      712.78307   712.78307   712.78307
          X               0.01312     0.50299     0.86419
          Y               0.91058    -0.36310     0.19751
          Z               0.41313     0.78432    -0.46278
   Rotational Symmetry Number is   1
   The Molecule is a Spherical Top
   Translational Enthalpy:        0.889 kcal/mol
   Rotational Enthalpy:           0.889 kcal/mol
   Vibrational Enthalpy:         13.948 kcal/mol
   gas constant (RT):             0.592 kcal/mol
   Translational Entropy:        40.825  cal/mol.K
   Rotational Entropy:           27.384  cal/mol.K
   Vibrational Entropy:          10.032  cal/mol.K

   Total Enthalpy:               16.318 kcal/mol
   Total Entropy:                78.241  cal/mol.K

 Total job time:  113172.39s(wall), 860218.48s(cpu)
        *  Thank you very much for using Q-Chem.  Have a nice day.  *
